# vtk DataFile Version 3.0
vtk output
ASCII
DATASET RECTILINEAR_GRID
DIMENSIONS 6 6 1
X_COORDINATES 6 float
0 1 2 3 4 5
Y_COORDINATES 6 float
0 1 2 3 4 5
Z_COORDINATES 1 float
0 
CELL_DATA 25

SCALARS Is-Inside char
LOOKUP_TABLE default
1 1 1 1 1 1 1 1 1 1 1 1 1 1 1 0 1 1 1 0 0 0 0 0 0

SCALARS On-Surface char
LOOKUP_TABLE default
1 0 0 0 1 1 0 0 0 1 1 1 0 1 1 0 1 1 1 0 0 0 0 0 0



