# vtk DataFile Version 3.0
vtk output
ASCII
DATASET RECTILINEAR_GRID
DIMENSIONS 7 4 4 
X_COORDINATES 7 float
1 2 3 4 5 6 7
Y_COORDINATES 4 float
1 2 4 8
Z_COORDINATES 4 float
1 2 3 4
CELL_DATA 36
FIELD FieldData 1
cellscalar 1 36 float
0.0 1.0 2.0 3.0 4.0 5.0 6.0 7.0 8.0 9.0 10.0 11.0
POINT_DATA 16
